# vtk DataFile Version 4.2
vtk output
ASCII
DATASET POLYDATA
POINTS 35867 float
15.3224 -24.4328 15.6294 15.4288 -24.5918 15.6897 15.1818 -24.6166 15.8894 
15.3706 -24.5981 15.7372 15.5155 -24.5938 15.5997 15.4581 -24.5926 15.6595 
15.7269 -24.5648 15.4326 15.5243 -24.5926 15.5928 13.4268 -22.2853 20.2993 
13.4695 -22.1562 20.4111 13.6131 -22.1113 20.1336 13.4951 -22.0788 20.4783 
13.5297 -21.9766 20.5648 13.5728 -21.8496 20.6722 13.5965 -22.4104 20.0465 
13.4775 -22.3234 20.2235 13.459 -22.3099 20.251 13.7986 -22.4701 19.8401 
13.7164 -22.4461 19.924 13.6201 -22.4179 20.0222 14.3261 -21.7615 19.6914 
14.2546 -22.5315 19.444 14.1637 -22.5222 19.5218 14.119 -22.5176 19.5601 
14.0665 -22.511 19.6055 13.8531 -22.4794 19.7919 14.6666 -22.7856 18.7668 
14.6164 -22.8322 18.8146 14.5923 -22.8139 18.8557 14.5305 -22.7644 18.9623 
14.4555 -22.7042 19.0919 14.3771 -22.6381 19.2287 14.321 -22.5906 19.3268 
14.6548 -22.8776 18.7292 14.6831 -22.8994 18.6804 14.672 -22.8908 18.6996 
14.9279 -22.648 18.3193 14.8798 -23.1938 18.1544 14.8567 -23.1602 18.2158 
14.7952 -23.071 18.3788 14.7657 -23.0262 18.458 14.7061 -22.9358 18.618 
14.1921 -23.2329 17.0902 14.6442 -23.6814 17.7109 14.6469 -23.676 17.7159 
14.7122 -23.5444 17.8382 14.7325 -23.5023 17.8765 14.7431 -23.4806 17.8963 
14.817 -23.3257 18.0359 14.8713 -23.212 18.1383 14.6179 -24.2981 16.8791 
14.6189 -24.2812 16.9025 14.6194 -24.2722 16.9151 14.6266 -24.1314 17.1079 
14.6286 -24.0917 17.1624 14.6334 -23.9807 17.3122 14.6364 -23.9095 17.4084 
14.6393 -23.8291 17.5153 14.643 -23.7256 17.653 14.7523 -24.6493 16.2401 
14.5868 -24.4301 16.7138 14.1762 -24.1608 16.2641 14.5897 -24.4338 16.7059 
14.6039 -24.4525 16.6664 14.6809 -24.5541 16.4479 14.6919 -24.5686 16.4166 
15.1531 -24.619 15.9131 14.8886 -24.6399 16.1296 14.8449 -24.6433 16.1654 
14.8087 -24.6459 16.1948 14.6129 -24.3199 16.852 13.745 -23.2882 16.0398 
15.474 -24.139 14.6493 16.2171 -24.5985 14.861 16.1915 -24.5971 14.8916 
15.9791 -24.5837 15.1427 15.974 -24.5834 15.1487 15.9642 -24.5827 15.1602 
15.7516 -24.5668 15.4047 16.9502 -24.4348 14.3026 16.4798 -24.5426 14.6643 
16.5212 -24.5338 14.6333 16.5448 -24.5286 14.6155 16.8585 -24.4565 14.3739 
14.6029 -23.1184 15.3311 15.5042 -22.9476 14.5419 17.683 -24.0492 13.6928 
17.7783 -24.2107 13.6638 17.2765 -24.3312 14.0871 17.6198 -24.2515 13.7983 
17.5563 -24.2668 13.8518 17.4736 -24.2858 13.9214 17.9767 -24.1665 13.4809 
17.8594 -24.1931 13.5892 17.0207 -24.3984 14.2818 16.5651 -23.4761 13.7663 
17.0545 -24.4002 14.2386 17.2382 -24.3434 14.1134 17.0799 -24.3927 14.2215 
17.3836 -23.1947 13.2351 18.9567 -23.6873 12.4896 19.0872 -23.8288 12.5222 
18.8253 -23.9496 12.6872 19.0773 -23.8334 12.5284 19.1839 -23.7862 12.4558 
18.315 -24.1325 13.0817 18.1953 -24.146 13.2243 18.1095 -24.1546 13.3255 
18.0596 -24.1591 13.3839 18.7375 -23.983 12.7559 18.6869 -24.0013 12.7951 
18.5901 -24.0355 12.8697 18.3423 -24.1231 13.0608 13.9868 -21.175 21.0933 
14.2661 -20.9619 21.1195 14.234 -20.9788 20.979 14.2353 -20.9854 21.1171 
14.1822 -21.026 21.1131 14.4091 -20.8553 21.1277 13.5995 -21.8035 20.7039 
13.6047 -21.7946 20.7099 13.6115 -21.783 20.7177 13.7218 -21.6014 20.8332 
13.8124 -21.4523 20.928 13.8392 -21.4088 20.9549 13.8703 -21.3584 20.9862 
13.9633 -21.212 21.0717 14.9329 -20.536 20.4472 14.5414 -20.7672 21.125 
14.5875 -20.7365 21.1228 14.9101 -20.5219 21.1075 14.9919 -20.4676 21.1015 
15.0761 -20.4117 21.0952 14.9955 -21.5849 19.1879 15.487 -20.3517 19.7717 
15.3413 -21.6989 18.3205 14.2468 -22.1816 16.8018 13.7385 -22.3041 15.8589 
14.0184 -21.8767 15.1384 14.5683 -21.4921 14.3453 15.8788 -22.3653 13.8125 
15.1238 -21.1516 13.6686 19.6691 -23.6067 12.0329 19.2444 -23.7649 12.4041 
19.6344 -23.6198 12.0634 19.4092 -23.7043 12.2608 18.7159 -22.9072 11.9025 
19.8799 -23.525 11.8447 19.7749 -23.5668 11.9394 19.7154 -23.5894 11.9922 
17.5026 -22.353 12.5204 16.4568 -22.0099 13.2912 18.0181 -22.0333 11.6992 
19.4494 -22.6042 11.3705 20.3967 -23.3686 11.2622 19.9312 -23.501 11.8055 
20.3314 -23.3885 11.3398 20.2355 -23.4164 11.4523 20.1696 -23.4349 11.5289 
20.003 -23.4816 11.7227 20.7731 -22.8172 10.6647 20.922 -23.1844 10.6642 
20.654 -23.2548 11.0244 20.8848 -23.1949 10.7146 20.7403 -23.2332 10.9089 
20.6645 -23.2522 11.0104 21.0504 -23.1366 10.5115 20.9879 -23.16 10.5859 
20.9459 -23.1758 10.636 15.9975 -19.8358 20.9663 15.7258 -19.9755 21.0386 
15.953 -19.8587 20.9782 15.2787 -20.2755 21.0819 15.4135 -20.185 21.0695 
15.6476 -20.028 21.0479 16.2066 -19.5988 21.0277 16.3692 -19.508 20.9874 
16.2966 -19.4443 20.1843 16.59 -19.3841 20.928 16.7649 -19.2858 20.8802 
16.7692 -19.2834 20.8789 16.0315 -19.7973 20.9772 16.1992 -19.6072 21.0256 
15.9703 -20.3615 19.0436 15.8246 -21.0188 17.7947 14.6399 -21.4763 16.2484 
16.5795 -19.4324 19.0504 16.3425 -20.2208 17.2466 15.0885 -20.6353 15.34 
14.5077 -20.2735 14.1543 15.004 -20.1699 13.3714 16.0881 -21.0963 12.9146 
17.1322 -21.3245 12.3164 17.4216 -20.8562 11.6513 20.4849 -23.3301 11.1811 
19.466 -21.9579 10.8669 18.4742 -21.6268 11.1706 18.6657 -21.1066 10.6569 
21.3034 -23.0813 10.1167 21.2571 -23.0917 10.1891 21.1465 -23.1166 10.3622 
20.8945 -22.0985 10.1009 21.6066 -22.9916 9.6679 21.5247 -23.0176 9.79018 
21.5099 -23.0223 9.8123 21.4777 -23.0321 9.85996 21.3232 -23.076 10.0876 
19.8927 -21.6802 10.4228 20.0652 -21.1115 9.82907 22.3174 -22.5639 9.04014 
22.1708 -22.6613 9.15598 22.2141 -22.4557 9.08303 22.1454 -22.6781 9.17605 
21.3876 -21.8639 9.55584 21.7587 -22.918 9.49948 21.7256 -22.9343 9.53621 
22.0463 -22.7419 9.25938 21.9937 -22.7752 9.30346 21.8541 -21.497 8.95642 
22.8447 -22.2436 8.50098 22.8142 -22.2708 8.51118 22.7477 -22.2178 8.49903 
22.765 -22.3145 8.52763 22.7373 -22.3305 8.55954 22.6124 -22.4023 8.70363 
22.478 -22.478 8.85791 22.3689 -22.5367 8.98185 17.4338 -18.8283 20.7489 
17.4359 -18.8269 20.7482 17.3852 -18.798 20.6632 17.4917 -18.793 20.7327 
17.2723 -18.9125 20.8066 16.8663 -19.212 20.8656 17.1263 -19.0207 20.8298 
17.7 -18.6392 20.6939 17.5114 -18.7787 20.7293 17.647 -18.6784 20.7039 
17.5923 -18.4031 19.7991 17.8861 -18.5216 20.6402 18.1197 -18.3726 20.5682 
18.1503 -18.3531 20.5588 17.2575 -18.7649 18.441 16.9134 -19.0824 16.6823 
15.4666 -19.3223 14.8533 14.8202 -19.2447 13.782 16.365 -20.4467 12.4418 
15.4952 -20.2162 12.8791 15.2668 -19.3789 12.7807 17.9914 -21.0021 11.059 
16.5698 -19.8527 11.8925 17.2701 -20.2784 11.6078 17.6632 -20.1854 11.1357 
19.3183 -21.07 10.2899 18.2868 -20.5757 10.6449 18.6245 -20.3348 10.3167 
20.9495 -21.06 9.24718 19.3522 -20.2392 9.65298 20.1409 -20.4079 9.18243 
23.3067 -21.7396 7.94251 22.8858 -22.2152 8.46613 22.9346 -22.1814 8.42475 
22.9548 -22.1672 8.40746 23.2541 -21.9506 8.14522 23.3798 -21.8586 8.03411 
23.5108 -21.7527 7.93656 23.4126 -21.8326 8.01016 22.3413 -21.158 8.38264 
21.198 -20.5198 8.56267 22.6642 -20.8204 7.71238 23.8275 -21.3277 7.10583 
24.1821 -21.3121 7.06621 23.986 -21.4516 7.31089 24.082 -21.3834 7.19123 
23.9925 -21.4471 7.30297 23.8925 -21.5129 7.43786 23.7819 -21.5835 7.5843 
23.6954 -21.6376 7.69702 23.5665 -21.7184 7.86506 18.6035 -17.8647 20.3651 
18.6965 -17.911 20.4596 18.8093 -17.8427 20.4152 18.4728 -18.0644 20.5274 
18.5813 -17.9906 20.4952 18.6098 -17.9712 20.4868 18.6371 -17.9523 20.4783 
18.2577 -18.2577 20.5498 20.2626 -16.8483 19.815 20.2749 -16.8647 19.8358 
20.2882 -16.855 19.8303 19.3146 -17.489 20.2497 18.9138 -17.3412 19.9684 
19.3107 -17.4918 20.251 18.9958 -17.7139 20.3558 17.9255 -17.6943 19.4349 
19.6947 -17.2319 20.103 19.3773 -17.4474 20.2263 19.5022 -17.3626 20.1778 
19.1825 -16.9643 19.6012 19.7402 -17.2031 20.0835 20.3091 -16.8374 19.8238 
18.3418 -17.0972 19.278 17.7563 -17.7015 18.3593 18.754 -16.6287 18.7174 
17.772 -17.6128 17.1758 16.8986 -18.2462 15.7377 15.6811 -18.2791 14.4408 
15.2805 -18.3873 13.4378 15.3997 -18.5438 12.7834 16.5465 -19.1876 11.5366 
15.7984 -18.6543 12.1679 16.1297 -18.6236 11.5762 17.8152 -19.7308 10.709 
17.14 -18.9328 11.1015 17.9278 -19.4026 10.4135 18.6158 -19.427 9.81444 
19.4278 -19.7793 9.30076 19.956 -19.6064 8.64685 21.9675 -20.5857 8.12735 
20.7566 -19.9233 8.17403 21.476 -20.0354 7.59546 24.4382 -20.5248 6.18001 
24.7309 -20.8516 6.52253 24.5164 -21.0348 6.73863 24.3547 -21.1712 6.89962 
24.2293 -21.274 7.02107 25.0031 -20.6603 6.07449 24.9448 -20.7024 6.17224 
24.7968 -20.807 6.41678 24.7728 -20.8235 6.45568 24.7589 -20.8328 6.47781 
22.9022 -20.316 6.82073 12.6304 -17.4336 25.0104 12.4866 -17.3989 25.1061 
12.5246 -17.3561 24.9355 12.5696 -17.419 25.0511 13.5642 -17.4656 24.4937 
13.2903 -17.4885 24.6268 13.1423 -17.3964 24.4911 13.2341 -17.4932 24.6541 
13.0415 -17.4831 24.7631 13.1801 -17.4906 24.6852 13.2043 -17.4918 24.6714 
12.6698 -17.4385 24.9871 12.8783 -17.4638 24.8622 20.086 -16.9843 19.9257 
20.1748 -16.9287 19.8841 19.7692 -17.1851 20.0708 19.8759 -17.1178 20.0222 
20.5602 -16.2265 19.2098 21.2757 -16.0324 19.4753 21.3011 -16.0059 19.4689 
20.965 -16.3498 19.5483 20.9647 -16.3501 19.5484 20.3878 -16.7799 19.7919 
20.5627 -16.6514 19.7202 20.9383 -16.3703 19.5601 20.9458 -16.3646 19.5569 
21.1956 -15.5166 18.8157 21.6873 -15.6564 19.3263 22.0242 -15.3524 19.1884 
21.9815 -15.3916 19.2066 21.6861 -15.6576 19.3268 21.6263 -15.7124 19.3498 
21.5488 -15.7824 19.3782 19.5905 -15.9363 18.1956 18.3201 -16.5366 17.3526 
17.7743 -17.3679 16.2914 17.0322 -17.2573 15.2778 15.9993 -17.367 13.9979 
15.7838 -17.7214 12.8351 15.8448 -18.0891 12.3367 16.1512 -17.8759 11.9432 
25.6804 -16.1114 12.5137 25.5975 -15.8765 13.4774 25.7336 -16.3147 12.6697 
25.6242 -15.9628 13.3255 25.6272 -15.9725 13.308 25.643 -16.0235 13.216 
25.6652 -16.0949 13.0853 25.6693 -16.1082 13.0608 25.7024 -16.2147 12.8607 
25.7133 -16.2497 12.7951 26.044 -16.0936 12.314 25.9108 -16.1909 12.4688 
25.8064 -16.2642 12.5875 25.8586 -16.2279 12.5284 16.927 -17.8348 10.9845 
17.5947 -18.555 10.2678 19.11 -19.1548 9.27713 18.2386 -18.4897 9.51938 
19.0933 -18.5434 8.93534 20.5303 -19.4452 8.02275 19.8853 -18.6741 8.27912 
20.6339 -18.9467 7.47584 25.0283 -20.6415 6.03418 25.1194 -20.5736 5.88832 
[...]
CELL_DATA 65281
SCALARS Distance double
LOOKUP_TABLE default
-0.066095515666 -0.00026958248791 -0.065784567656 -0.00010071580442 -0.065797274611 -0.065797428699 -0.047440828782 -0.047440834529 -0.047763490672 
-0.048390383645 -0.047508031361 -0.00017860816343 -0.00010141518319 -0.047996253563 -8.9452030068e-05 -8.9388122466e-05 -0.16417936053 -0.11630752158 
-0.0016923606167 -0.00086329050364 -0.00036803797303 -0.00017622087031 -0.13164092308 -0.014501295588 -0.0018347407482 -0.0016886709325 -0.00088488456178 
-0.00042311515896 -0.00035175644425 -0.012426738102 -0.01242706547 -0.012426819426 -0.10285041175 -0.090915749561 -0.0012854504676 -0.00079180134994 
-0.00022074257668 -0.00022103251712 -0.38038728177 -0.09389407439 -0.092818601216 -0.091652600491 -0.091450751679 -0.091381618365 -0.09058520251 
-0.09022870469 -0.28673042652 -0.28660863298 -0.28631757965 -0.28547503946 -0.28528986746 -0.28516288875 -0.28483308709 -0.28483318701 
-0.28503345711 -0.20307169023 -0.00088600554818 -0.00072545661817 -0.00059192453818 -0.00010543876865 -0.27217058867 -0.2057189831 -0.20526369241 
-0.2034678541 -0.20298633773 -0.20282282573 -0.49203307994 -0.28785620573 -0.28690184314 -1.010848904 -0.33616829316 -0.070721891901 
-0.068711081472 -0.066965839294 -0.066884324914 -0.066601053375 -0.065797519374 -0.27139655542 -0.003020423072 -0.00077103095924 -0.00034778893871 
-0.00023078502951 -0.79441635083 -1.1409763553 -0.88661297733 -1.3969030618 -0.054982398743 -0.0015625866694 -0.00017157673221 -0.00017087199391 
-0.052865471227 -0.00023928048292 -0.84669599213 -0.5779143289 -0.95836655939 -0.38018353675 -0.43394561994 -0.37986387761 -0.37977948013 
-0.37991118725 -0.81377871141 -0.063307675372 -1.9877088201e-05 -0.063392741861 -0.43293404225 -0.054708774752 -0.053381965815 -0.053060039027 
-0.053059893546 -0.44885823997 -0.38306314789 -0.38206007546 -0.38157553146 -0.3807330375 -0.38012730959 -0.031732281419 -0.00077142686304 
-0.00029883487557 -0.030949573823 -0.20148352305 -0.086087532 -0.052477342558 -0.0020385418506 -0.0016664493586 -0.0015712925921 -0.0015174875409 
-0.0012428580605 -0.0006867741045 -0.00023941996671 -0.00023991226891 -0.16695469993 -0.13468580775 -0.13397374983 -0.13397410566 -0.13392877697 
-0.13392874826 -0.28657973696 -0.26011360142 -0.28563530691 -0.4091778152 -0.51962196344 -0.62916474128 -0.48809575635 -0.62822263902 
-1.1192287933 -1.3889519184 -1.8960961395 -1.8664880837 -2.3219203013 -2.1068188256 -2.6671328731 -1.7207997528 -1.526811209 
-2.4525675029 -3.0880909065 -0.06537554771 -0.0010411807006 -0.00045142698741 -0.00045125504481 -0.4376038667 -0.066486534439 -0.065445284168 
-0.065280531712 -1.104866858 -1.8635147988 -1.0951423179 -1.7745316725 -1.9703282085 -2.7991440539 -0.3628708835 -0.0015380180481 
-0.00060768944705 -0.00025837899231 -0.00025837347003 -0.11844131555 -0.00054767728837 -0.00031375059048 -0.00059886692252 -0.73595059002 -0.36157895521 
-1.4783979587 -0.11734284982 -8.6932309241e-05 -8.7211012677e-05 -0.36368320527 -0.13761649249 -0.13869802451 -0.13675820716 -0.0015133677866 
-0.00042060355723 -0.00042050678647 -0.19434735787 -0.19403528578 -0.19381003524 -0.19383202364 -0.42346374672 -0.19430508881 -0.19430040752 
-0.19449163053 -0.71493508041 -0.76777734097 -1.7876310911 -1.2464169758 -0.95175779907 -1.0931478452 -1.4059819354 -1.8100239348 
-2.557085144 -2.1593106347 -2.4616062158 -2.8295286688 -3.1600178542 -3.6236452856 -3.7678441898 -4.1641822964 -2.6500681179 
-2.8264976692 -2.4026856807 -2.8891865769 -3.2006447435 -3.8854819205 -0.48293759731 -0.11853818113 -0.00025174145501 -1.0520470717 
-1.9205818184 -2.703196862 -1.7467143956 -2.3432235699 -0.11815029684 -0.00045934042059 -0.00045919764659 -0.43989772312 -0.122202587 
-0.12089949076 -0.12037414174 -0.11936437348 -0.11866755413 -1.2830132716 -2.1243749285 -1.0311756167 -1.6676261001 -0.043969480817 
-0.043969832142 -0.63926375885 -0.32046796696 -0.31988674367 -1.3915545087 -0.3653757284 -0.04614122204 -0.0015761666534 -0.00033943633357 
-0.71939247556 -0.028268293642 -0.028268317625 -0.075316656727 -0.030443026218 -0.0021199692894 -0.0015889684975 -0.0010098581616 -0.00017654689073 
-0.42905327238 -0.032266748826 -0.032266858728 -0.032267375458 -0.22968324371 -0.033808235021 -0.03371668873 -0.032267125006 -0.032889659519 
-0.00014723247498 -3.8023255845e-05 -0.61237369539 -0.86814416169 -0.28283027721 -0.25000937941 -0.25059566113 -0.25043864823 -0.66898751744 
-1.147612543 -1.5050208253 -1.9690001658 -2.5266727475 -3.3039029504 -3.8917273894 -4.519499949 -4.6471818796 -3.5026597293 
-3.4837405901 -4.1617921048 -3.987172388 -4.9422779949 -4.7345597034 -3.0319065853 -2.8456854102 -3.9954152213 -3.9731818814 
-3.7788089501 -3.5366858687 -4.5626685218 -4.5929728374 -2.4276696428 -2.2228163109 -3.3523517331 -3.4413954883 -3.3071234517 
-3.0185143016 -1.7040187826 -1.3042580626 -2.8153494875 -3.0695162815 -2.8461840499 -2.3488539321 -0.082072324269 -0.053088591883 
-0.052254829809 -0.051665523471 -0.051528815831 -0.051032923843 -0.05129081019 -0.0002340082587 -0.75457361384 -1.4855645623 -0.45092541204 
-0.846680293 -1.7445436207 -2.3561610276 -0.08024474294 -2.3123524051e-05 -2.396614012e-05 -0.13406455048 -0.083070742178 -0.0018855240834 
-0.00065362926477 -0.0002147525925 -0.00021447491903 -0.55797629063 -0.045491113488 -0.046401363563 -0.00053894459076 -0.00022271319636 -3.190006086e-05 
-0.29831595425 -0.046576131129 -0.045923564442 -0.0094749814721 -0.2087937976 -0.047224641797 -0.047216557067 -0.045489671964 -0.60464523468 
-0.16302646334 -0.0003360625716 -0.00033584939949 -0.41289565853 -0.16269033412 -0.69357952759 -1.1638105706 -0.0094748827336 -1.0158929739 
-1.4973724286 -0.86985517804 -1.2820412812 -1.5552580316 -2.0110921656 -1.677947055 -2.1088234519 -2.3839561555 -2.9268459029 
-3.4239573833 -4.2177473208 -4.7150715679 -5.1948053927 -5.2931030382 -5.505450279 -4.1497930744 -4.5559405745 -5.1556555748 
-5.5445919433 -5.1332165754 -5.5462045966 -3.6707406768 -3.95593696 -4.7595751468 -5.3661436067 -4.4851241903 -4.7015674309 
-3.7681475894 -3.8341120513 -3.344006263 -3.4574625982 -4.1684868998 -4.1765582473 -1.7352866272 -1.4008760789 -2.9653529562 
-3.0303914917 -2.6796848146 -2.2552094153 -0.24934310642 -0.083911373412 -0.081816966702 -0.080583824857 -0.080221388192 -0.16466695372 
-0.16437727022 -0.16429500636 -0.16436092085 -0.1645596028 -1.0525867662 -0.79478986872 -1.9178285014 -1.8603897187 -0.046255600617 
-0.00018139845938 -0.06999302455 -0.069992862516 -0.070432697088 -0.00023538892832 -6.0761832462e-05 -0.11753451914 -0.071245914125 -0.070754644656 
-0.070197299041 -0.009937961161 -0.00046299414743 -0.26174494095 -0.010578862165 -0.010201443678 -0.010022710233 -0.17338222548 -0.17321078867 
-0.17282729993 -0.18403640008 -0.17441453186 -0.17374395979 -0.17276352629 -0.17260721495 -0.1727162311 -0.76056540838 -0.83497657091 
-0.229834846 -0.00026779827438 -0.40585542864 -0.1767216717 -0.17633793645 -0.17596396324 -0.17509338389 -1.0315990231 -1.3760323864 
-2.1476004634 -2.4093819716 -2.9283416839 -3.1760675519 -3.7361703707 -4.2856649601 -4.9458540979 -5.354041878 -5.721732145 
-5.7729903066 -5.8136346464 -5.8989935253 -5.9271074127 -5.8635610277 -0.070804287084 -0.0028789510185 -0.0020436329045 -0.0018212123351 
-0.00096719514904 -0.00047338166773 -0.00039574007338 -0.00020853355332 -0.068882224462 -0.0012711103409 -0.00018652206034 -0.00018780218999 -5.686320473 
-5.7839794738 -5.559985458 -5.0706383051 -4.1722489601 -3.9599738429 -4.8050749566 -5.0510415147 -4.6992016186 -4.8886466747 
-3.4737775184 -3.1209939148 -4.3480350676 -4.3810853681 -3.9405240169 -4.0378120229 -0.16467384968 -0.16467460213 -0.1653859009 
-0.16599094285 -0.16637159472 -0.16820640325 -1.3514576907 -1.1680861536 -0.53103291419 -0.36375408489 -0.36386150559 -0.70641064677 
-0.36405748855 -2.4976807142 -2.2468432651 -3.4268723018 -3.2872498041 -0.34167147702 -0.3416715624 -0.34169821632 -0.34179120282 
-0.34183844368 -0.34264886129 -0.34298545306 -0.093958691552 -0.094413681217 -0.094748157675 -0.094004271291 -0.093958844937 -0.093958993065 
-0.14129957539 -0.047008422183 -0.046654394123 -0.046074602443 -0.046073595619 -0.45293390303 -0.06388165345 -0.00055711420007 -0.0004362622784 
-0.064304517548 -0.001164086391 -0.00026123797909 -0.26553573369 -0.19439708077 -0.19407990254 -0.19392490102 -0.25881591203 -0.064806650061 
-0.064281837695 -0.063816169223 -0.42885516076 -0.70198467924 -0.58454818763 -0.96725196151 -0.17263546659 -0.0015173978808 -0.00017366659846 
-0.28317109053 -0.11230357049 -0.11199454639 -0.13860531177 -0.026698672287 -0.025735159158 -0.025000855421 -0.025001040762 -0.3247984421 
-0.064793104338 -0.064760333633 -0.064756238013 -0.43227635585 -0.17111896659 -0.17111883967 -0.57400797725 -0.64011839712 -0.96364849323 
-1.3505624397 -2.7153419499 -2.9333593321 -2.3618053667 -2.2759645272 -2.7777616297 -2.3951231899 -2.6278311163 -2.7831168081 
-3.9587115301 -4.0234423604 -3.6159042654 -3.4718136938 -3.7617910216 -3.5035307586 -4.0536644576 -4.1709379261 -3.6985258673 
-3.578964806 -4.1492133623 -4.2823408343 -3.8019015932 -3.7014364122 -4.1872937479 -4.3530240826 -3.8832324161 -3.85456833 
-4.1567968752 -4.2845868513 -0.55612205494 -0.41022380891 -0.854719275 -0.86645733836 -1.1564990756 -1.2643343232 -3.26680176 
-3.4448130491 -3.3869620464 -3.0527588121 -3.4373086724 -3.5117713373 -3.1312080176 -3.1210569153 -3.6485507937 -3.7315287499 
-3.3450437348 -3.281609537 -3.9004529627 -3.9255728993 -3.5595027688 -3.4880161722 -4.1256082333 -4.1969767132 -3.7581320006 
-3.6391890738 -4.3420672748 -4.4196496183 -4.532232723 -4.6400384279 -4.6572750812 -4.790888835 -4.7390333007 -4.9111638223 
-4.9227341881 -5.0116642358 -4.6119094752 -4.6333894548 -5.1827090347 -5.2522797908 -4.8755921349 -4.8835544146 -5.3721694823 
-5.4458679733 -5.1175015191 -5.303811331 -5.5600094629 -5.972790621 -3.7314792752 -3.7859557038 -3.6050697427 -3.8095199511 
-3.9037759064 -3.9457594009 -4.1019823553 -4.2486885525 -4.1504934021 -4.4934011307 -4.2250743971 -4.5639583123 -4.5612573609 
-4.8973630514 -4.8275563358 -5.1412456884 -5.0313758164 -5.3227840607 -5.1897978621 -5.4676677901 -5.3222807189 -5.5998823616 
-5.4613520967 -5.7488503812 -5.6284261727 -5.9242585104 -5.8104114833 -6.1503625882 -3.9922244084 -4.2681365112 -4.2763098183 
-4.5780361081 -0.23336529148 -0.00056590937629 -0.0001921145866 -0.0004430322337 -0.46610903643 -0.23248119113 -0.23111354731 -1.1407922161 
-1.5309592799 -2.3034427576 -2.5741009439 -3.1301585683 -3.2242987312 -3.7267278481 -0.23591541488 -0.0028247421456 -0.0021538438491 
-0.0013110111856 -0.00096297752098 -0.00037346700814 -0.00014206243779 -0.4645809992 -0.23785945287 -0.23668423862 -1.4852744142 -1.661722243 
-0.96158143832 -1.1728646349 -2.4890580463 -2.7387771807 -3.3642187871 -3.4837246657 -3.8690956778 -4.0214482037 -4.5119986121 
-4.978722611 -0.090139634643 -0.00046823122318 -0.091340132922 -0.090847595837 -0.089652947635 -0.089637824777 -0.089637767919 -0.089671283976 
-0.089671412799 -0.53527029704 -0.44313339397 -0.44313367808 -0.44338882207 -0.671779779 -0.4434603565 -0.44345979976 -5.5889626378 
-5.9214302896 -6.0367862991 -6.1043696723 -6.263818959 -6.2598441483 -0.13300154155 -0.065500066345 -0.13473432532 -0.066368075196 
-0.066970877344 -0.0015827146833 -7.5483178287e-05 -6.1982632301 -6.2959844689 -6.3220242233 -6.0013141119 -6.2916977061 -6.3678966538 
-0.065500237777 -0.065013427153 -0.064617712705 -0.064617100213 -0.06457230239 -0.064571994725 -0.064947498956 -0.065887067693 -0.00041948897758 
-0.00018143314164 -5.75694659 -5.9071332296 -5.3867353617 -5.5435840356 -5.0766393914 -5.0844799877 -4.4840713055 -4.5894213457 
-1.7033915686 -1.4060468948 -2.6733236037 -2.3120401776 -4.0013314114 -3.9578383633 -3.3253077083 -3.4086173015 -0.70712040386 
-0.36330359661 -0.36330330963 -0.3633035858 -0.36328576465 -0.36328567902 -0.36386980532 -0.36421392116 -0.3642974302 -0.36495856162 
-1.7905481019 -1.4544765952 -2.8150629489 -2.5919285612 -0.0032420921058 -0.0032419454842 -0.0032421738471 -0.10137680198 -0.00082217747823 
-0.00042850467521 -0.00012149024469 -0.21687231575 -0.0042052453445 -0.003639354068 -0.0035136257987 -0.0035138163911 -0.0032417220963 -0.308351926 
-0.095173949861 -0.094748194279 -0.28185129368 -0.2784060066 -0.27808315808 -0.27749261678 -0.27729736749 -0.27759844918 -0.49605238314 
-0.37995689899 -0.1021676695 -0.10162653515 -0.10128469923 -0.67546463367 -1.5224726341 -1.5306075738 -1.1609758238 -1.0526821694 
-1.2831053216 -1.0492910826 -1.7215583325 -1.7763935353 -1.3584830176 -1.3505859562 -1.9549794067 -2.0029716746 -1.6660523604 
-1.663748259 -2.1634898025 -2.2182375802 -1.8978673048 -1.8816786999 -2.2955944797 -2.3907476598 -2.0514619571 -2.0722221504 
-2.3151667711 -2.4515245892 -0.74005415062 -0.8394785534 -1.0246782846 -1.1784158933 -1.4000896848 -1.4494435375 -1.0579644356 
-1.1439113775 -1.846598727 -1.8728736953 -2.1396402919 -2.2025233604 -2.3512205254 -2.4334669671 -2.5369189968 -2.6220989987 
-2.7043270762 -2.7956220821 -2.966248652 -2.9802562924 -2.7310844136 -2.8020348692 -3.2749708081 -3.2786353274 -3.0328068012 
-3.071433219 -3.5292563109 -3.5298896359 -3.3128764766 -3.4134803417 -3.769399302 -3.7896816861 -3.6101688108 -3.7462307346 
-3.9060143202 -4.1242782594 -1.1877479093 -1.3291944135 -1.4060441651 -1.5301515458 -1.7520369178 -1.8812091478 -2.0015184997 
-2.1514963508 -2.3003199006 -2.3804954006 -2.5781147847 -2.6502407866 -2.8267600755 -2.9093110604 -2.9788050012 -3.1015308666 
-3.1316601178 -3.2297536034 -3.3198792579 -3.3804975559 -3.5848697026 -3.6117360313 -3.7970162273 -3.8479144973 -4.053747706 
-4.0595223444 -4.4244127206 -4.3896106315 -4.2866807105 -4.5532531959 -4.6915368163 -5.0554016932 -0.02500068358 -0.025339462796 
-0.025009017738 -0.025000498239 -0.11253147575 -0.11227342134 -0.11210689902 -1.7382422032 -1.7639953707 -2.0776770702 -2.1446484275 
-2.6237736838 -2.7742880707 -2.8130053876 -2.9067946993 -3.0336069025 -3.1165024063 -3.2341180421 -3.28681337 -4.1328807579 
-4.3586070469 -4.337019686 -4.619653747 -4.6793249454 -5.1297517233 -5.3318377368 -5.8227190435 -0.14085911596 -0.11551890501 
-0.11459686859 -0.11266221495 -0.11253147575 -0.47582021645 -0.63419882153 -1.1342149688 -1.2207953054 -1.6342758279 -1.6915592043 
-2.1017102524 -2.2006052266 -2.6275532179 -2.3047763684 -2.7785068498 -2.5970543909 -3.0180729237 -6.2317971081 -6.3294145176 
-3.0155053217 -3.4165731963 -3.0611111207 -3.4935589498 -3.4508378652 -3.8412977541 -4.593384437 -4.9268386606 -4.9423288212 
-5.3662030407 -5.3246554614 -5.6982921929 -5.5851993329 -5.9046748808 -5.7525289941 -6.0455093207 -5.894017155 -6.1790967153 
-6.0302213922 -6.3125832511 -6.1691544614 -6.4531509985 -6.3277590294 -6.6292569367 -6.5653935569 -6.9210186711 -6.9034148952 
-7.0767423181 -3.7328481068 -4.0990117194 -4.2379861296 -4.6120942614 -4.3207635541 -4.6777098036 -4.6046295439 -5.0022276443 
-4.9684912853 -5.3614908913 -5.3541170401 -5.8132037687 -5.81100099 -6.3162231357 -6.245414744 -6.6071965555 -6.3775932009 
-6.6676192408 -6.487182575 -6.7689743766 -6.6120936334 -6.890678633 -6.7400049747 -7.0134318837 -6.8695881177 -7.140148764 
-7.0242935481 -7.291815816 -7.2515935505 -7.4831092262 -7.4763578553 -7.5512128545 -4.9948852464 -5.380988572 -4.9759999099 
-5.2635374648 -5.396649496 -5.8051188288 -5.8037907581 -6.2240056679 -6.2415425513 -6.7192476288 -6.7980480263 -7.1778625738 
-7.1348472907 -7.355398319 -7.4603634344 -7.3818076553 -7.117592889 -7.3662671656 -7.197478737 -7.461654723 -7.31100676 
-7.5728617963 -7.4259174183 -7.6790208086 -7.5370009988 -7.7769893904 -7.6469330056 -7.8426408992 -7.7181600374 -7.7862636656 
-5.7678168177 -6.2175810872 -5.6684894863 -6.009213914 -6.238452052 -6.6655560978 -6.6520473352 -7.0415907534 -7.0912961592 
-7.3826696218 -7.4812902189 -7.6892816955 -7.6962982136 -7.6030206312 -6.7083577186 -6.5996022614 -7.1435097236 -7.2085289678 
-7.4804670988 -7.5696740189 -7.6576142065 -7.8079335995 -1.76781956 -2.0744217002 -2.7236978438 -2.9632795105 -3.6419284854 
-3.7908475 -4.4065098912 -4.362441658 -0.18490221121 -0.18474441181 -0.18478571053 -0.18489331491 -0.18521745839 -0.18587023567 
-0.27732422217 -0.091050803304 -0.00051022315086 -0.0002299446692 -0.63777842688 -0.89609013685 -2.1351004235 -2.8669616353 -1.5389266765 
-2.0452186754 -3.1487099257 -3.8583341626 -4.1124892295 -4.7307235564 -4.8748140036 -5.5135319415 -5.8055523783 -6.4660142733 
-0.1688450696 -0.0020067937402 -0.0014064386313 -0.00089671264913 -0.00089669600742 -0.35368626292 -0.16732869341 -0.16729766518 -0.98718897692 
-1.5335147901 -0.83666193 -1.1086238733 -6.5879311314 -6.9471190603 -0.0042036419346 -0.0042037566169 -0.0042040715749 -0.39438498632 
-0.16925843426 -0.87663714836 -0.27520101608 -0.27104801798 -0.0013194961794 -0.00066426698182 -0.00043653279325 -0.00022283738728 -0.49624362782 
-0.22654225282 -6.5174626065 -6.5467752211 -6.6115437799 -6.6634079778 -6.8955038945 -7.1364493355 -0.097670085635 -0.0010468532179 
-0.00035562875347 -0.10292293696 -0.098480488498 -0.098311320661 -0.098163892116 -0.097938747046 -0.097939004974 -0.37348949814 -6.2855534068 
-6.061723994 -6.7388111586 -6.7988647816 -6.6281212002 -6.8323726074 -6.9667027623 -7.0109206522 -5.4903296356 -5.1564576094 
-6.4623636295 -6.4287867104 -5.9655291088 -6.1875502614 -4.4691414909 -4.00727977 -5.6672976399 -5.6849193112 -5.0957810028 
-5.328317828 -0.008075488826 -0.0080755038795 -0.43367234822 -0.42510919486 -0.42481556566 -0.42432933552 -0.42465382356 -0.4246539599 
-0.78984884684 -0.42440922037 -0.4245521741 -1.5566863965 -1.8809811806 -2.6433512169 -3.0197741578 -3.87548577 -4.3207021553 
-5.015679555 -0.67769732896 -0.73639728824 -0.62536218877 -0.66825517578 -0.80360707898 -0.72844443736 -0.72048744518 -0.88371102498 
-0.029640370543 -0.030164318798 -0.00022215771705 -0.030040354118 -0.00029671924347 -0.00017292403259 -0.18018650115 -0.031606242259 -0.030646694143 
-0.030311831556 -0.030187764929 -0.8839291556 -0.95113330358 -0.10051000295 -0.10114665538 -0.10114650684 -0.10115582251 -0.35171748743 
-0.10205090271 -0.10127853453 -0.28221021443 -0.032301798352 -0.03147065475 -0.030111048515 -0.029978276278 -0.029942114945 -0.60715041857 
-0.50422113184 -0.7926790062 -0.64692276101 -0.91062579173 -1.1135079731 -1.1865154651 -1.4219718384 -1.427839235 -1.6533461906 
-1.6488823503 -1.8972635621 -1.9004764706 -2.3753434966 -2.5913310631 -2.1416632238 -2.1394233493 -2.6044026933 -2.852810737 
-2.3863691186 -2.4863661666 -2.806421516 -2.9608436794 -3.2278071895 -3.3928717586 -3.6675849648 -3.8247590658 -4.0941954304 
-4.2345890899 -4.5487743967 -4.705963344 -5.0924363542 -5.305529955 -0.11347055456 -0.0012145203379 -0.00011859079398 -5.8148475399 
-6.0562308575 -0.052104170383 -0.052104263064 -0.053804497615 -0.00078785456354 -4.2578700236e-05 -0.28945429273 -0.055326222026 -0.05373554606 
-0.053206829012 -0.3487648264 -0.23445949341 -0.23390594562 -0.77556473226 -0.87646176482 -1.381185902 -1.4785804229 -1.9317036479 
-2.0009067257 -2.4146897659 -2.4589801128 -2.826885924 -6.5740254775 -6.6984758745 -0.052104013832 -0.052816366311 -0.053609404568 
-0.055587953917 -0.056791236454 -0.056873653973 -0.05696232019 -0.28501474306 -0.057053452478 -0.60190440709 -1.0805768845 -0.59644874024 
-1.0880664545 -1.1945625877 -1.6834381877 -1.7680139485 -2.2464363427 -2.312009481 -2.7568696888 -2.7905555521 -3.2067333811 
-3.1986546443 -3.583135193 -7.1963050964 -7.3035849475 -1.3925187182 -1.7743762489 -2.0754893399 -2.6174731928 -2.0464570015 
-2.4492004825 -2.7043216965 -3.182680103 -3.1682533664 -3.6219390863 -3.6258943512 -4.0647189955 -4.0295689954 -4.4225147409 
-4.403695015 -4.7294621945 -7.8541669159 -7.8511843897 -2.9186957647 -2.7788794775 -3.6430017162 -3.7535797896 -3.7129488961 
-3.4248076956 -4.0512144039 -4.058901384 -4.5860769198 -4.576305861 -4.8991075717 -5.0283015059 -5.0804936965 -5.2327211542 